159
Time=1.00000000 pbc="T T T" Lattice="10.00000000 0.00000000 0.00000000 0.00000000 10.00000000 0.00000000 0.00000000 0.00000000 10.00000000" energy=-113.28991699 virial="457.96337270 2.38289564 -0.55177527 2.38289564 403.79585074 -34.12874980 -0.55177527 -34.12874980 343.91481627" stress="0.46978976 0.00238290 -0.00055178 0.00238290 0.41506940 -0.03412875 -0.00055178 -0.03412875 0.35523815" Properties=species:S:1:pos:R:3:vel:R:3:forces:R:3
C 0.16026316 9.88484407 4.14969663 0.02931433 0.00386254 0.01811404 59.04632063 14.41161180 35.84533682
C 9.51139850 2.57228810 3.83906622 0.00765491 0.00495866 -0.00351453 6.68837563 -3.78295679 2.68702301
C 3.37301068 1.98063221 0.03937667 -0.02622583 0.00815500 0.01135983 -60.26711755 9.84127307 38.61825429
C 4.15624929 2.93510092 2.99863725 0.00045983 -0.00032802 0.00264500 -1.64185932 0.57529200 2.43431075
C 0.15212884 8.84996425 0.80023032 -0.00063849 -0.00090580 0.00878859 2.51625596 -2.39024485 5.83405048
C 4.50111812 9.13794516 3.31139993 0.00600021 0.00338075 0.00323869 -2.36002118 3.42481183 -0.00308591
C 7.32216823 7.35299448 1.02257355 -0.00598989 0.00109250 -0.00798552 -1.71322631 -1.19998113 -0.54540178
C 9.68483507 2.35616365 6.58928068 -0.00739222 -0.00738930 0.00738622 -7.38769062 -3.14438154 5.26708278
C 3.91769374 9.93073148 9.72631064 -0.00569497 -0.00319765 -0.00666291 1.42234756 -3.23444855 -0.75575014
C 9.43151592 4.46238614 0.97220629 -0.00583556 0.00774237 -0.00443498 -0.02856854 -0.48243554 -0.48615525
C 3.01030383 0.23944508 4.66909544 -0.00243509 0.01518746 -0.00094608 -6.61991979 24.65650965 -5.35664679
C 0.72699241 6.40672661 1.63599626 -0.00340331 0.00352081 -0.00089088 -1.30389896 3.64541930 -1.08834080
C 0.90909882 5.49425061 7.41744739 0.00030195 0.00653695 -0.00367187 1.93731770 -2.17515825 1.32137525
C 0.10800340 9.83524225 5.46212488 0.02938670 -0.00347367 0.00597120 62.46002563 -9.15195561 6.16532595
C 9.24317070 7.04068964 9.41756706 -0.00362036 0.00456991 -0.00480612 -3.36376136 -3.73388761 -4.06614233
C 1.60427113 5.48789802 3.70070871 -0.00244366 0.00473353 0.00674190 -0.48495685 -0.13567301 1.70095622
C 5.49220406 7.92668976 9.73991784 -0.01070340 0.00799575 -0.00754868 -7.53750952 2.47974074 -19.43594371
C 9.74742596 2.65936201 8.20481737 -0.00773855 -0.00741409 0.00355894 -1.35566878 -5.36804842 1.39814474
C 6.43544863 8.76044741 5.74188635 0.00604798 -0.00330928 -0.00672277 -0.35017374 -1.56028627 0.92338785
C 7.76284750 8.06707533 2.23186471 -0.00560485 -0.00019501 -0.00752293 4.57521353 1.66724233 -1.46304994
C 2.00972747 3.11739074 1.70382747 -0.00385036 0.00666009 0.00491126 -0.06926839 -1.99338701 -2.23129146
C 2.96138573 9.39622674 8.73804008 0.00496848 -0.00362051 0.00028133 -0.41640224 1.10231995 0.32677762
C 9.23791797 9.40799621 6.93349006 -0.00149453 0.00263706 0.00031043 2.08512727 -3.33408481 -0.67131087
C 6.16241155 5.38844079 3.07153555 0.00366534 0.00024937 -0.00710266 1.77713878 -0.17781446 1.19952396
C 2.22254257 3.38888935 9.34003473 -0.00218896 0.02916929 -0.02424268 -1.34825163 55.89376670 -76.05409481
C 9.53470778 1.61348886 9.35785289 -0.00098181 -0.00061524 0.00108841 -9.78351302 7.88217445 -7.67946434
C 1.11500377 1.62616687 5.75303317 0.00458243 -0.00209082 0.00214879 6.09645026 1.27549977 -0.08559090
C 1.23569594 1.38153622 3.50399586 -0.00365760 0.00008308 0.00565756 3.94980176 3.12920404 0.85073266
C 0.92217714 6.32893916 8.66502985 0.00551951 -0.00267043 -0.00689889 1.80346115 0.89731322 -4.17955343
C 4.68942127 7.72939295 0.77080155 0.00568753 -0.00462288 0.00468235 -3.09654613 -5.06863775 4.81460851
C 9.27194637 7.00171120 4.94638694 0.00697051 -0.00108796 0.00387693 -1.01046220 -5.74912965 2.43988962
C 7.57554953 3.73345174 0.14024830 0.00501538 -0.00300956 0.00875615 -3.59550642 -4.68389157 4.52094225
C 8.79433896 1.59945482 1.18302920 -0.00121955 0.00481310 0.00542168 -0.17057141 -0.32793754 5.55822167
C 7.40233936 1.31579813 6.26048161 0.00583752 -0.00062701 -0.00505229 -1.54821826 -0.26177225 -1.10516178
C 7.49891122 1.57745046 2.04359264 0.00774871 0.00716306 -0.00607560 0.16801400 1.30113818 -0.94168820
C 8.48873806 4.74282038 9.10004922 0.00849087 0.00298196 -0.01098646 7.25204451 2.41895216 -25.11037928
C 5.89729735 1.28440086 8.17761387 0.00116061 -0.00419699 0.00440702 -0.76368843 -0.94075210 -0.06683867
C 7.17979995 2.85725268 4.21745150 -0.00370017 -0.00122160 -0.00429167 -1.61861197 -0.38411811 0.39045202
C 1.42181371 5.49279348 5.14823134 -0.00567635 -0.00343250 0.00050202 -1.36950178 1.05567142 0.87310848
C 5.80025001 8.92871019 2.88986291 0.00032372 -0.00588087 0.00623124 3.54463609 -0.82422541 -0.65149322
C 6.64740018 2.45051635 5.48819207 -0.00670346 -0.00627003 0.00009833 -0.40741234 0.05880272 0.63803313
C 4.40055985 3.83680777 5.37658064 0.00387187 0.00748168 0.00622805 -0.66721568 -0.38860674 -1.12681299
C 6.29863633 5.04629442 1.61797662 0.00300788 -0.00215297 0.00618000 -1.04181625 -0.21756953 5.53554133
C 4.80938723 1.56809646 7.22174360 -0.00251403 -0.00359361 -0.00489225 -0.10271163 -0.00018937 -0.48761939
C 2.23348323 2.85149264 0.04389327 0.00321563 -0.02730356 0.02685758 2.96873288 -57.27869741 82.63066592
C 7.96308710 4.09520599 4.24258254 0.00382490 -0.00561936 0.00549069 -0.03038106 1.65479076 1.51411791
C 7.37497015 1.55189836 3.52988042 -0.00540988 0.00350482 -0.00738038 -0.32373680 -0.68103286 -1.19704945
C 7.58258506 5.52657990 3.71257878 0.00656529 -0.00743748 0.00036200 -2.19037409 0.05631299 -0.19114317
C 3.24815012 9.27659556 7.36525609 -0.00600868 -0.00468140 0.00418982 -0.96800431 -0.51529207 -0.46373802
C 7.96201283 6.37213591 7.42267772 0.00407705 0.00211007 0.00754303 1.67860922 -0.43779847 -0.48471637
C 6.25212783 9.45587411 1.57254703 0.00156772 0.00303431 -0.00714204 -2.81364860 -2.51409965 -1.26743512
C 7.54194347 5.91439312 1.29162775 -0.00458135 0.00054693 -0.00609964 2.15403704 0.95559478 1.62480645
C 5.37204565 1.67817920 4.87784186 -0.00608911 -0.00476485 -0.00042865 2.25378312 0.61235259 1.16887539
C 4.10540025 1.88780076 9.56690012 0.02757930 -0.00432588 -0.01136859 57.41028460 -13.01280175 -37.51665595
C 8.43469045 0.43576531 9.53460657 -0.00987906 -0.00389038 0.00733336 -4.85370479 4.84573210 -2.27363106
C 8.79301386 1.25918068 4.17377915 -0.00587944 0.00807558 -0.00805463 -2.89628250 4.86712261 -5.41208867
C 9.52424232 0.11658043 3.36371049 -0.00496376 0.00636685 -0.01263133 -32.95397031 34.34656781 -47.10979043
C 4.91955420 2.66717042 1.85713354 -0.00542847 -0.00891955 0.00594721 2.75693865 -1.74271711 -1.48466992
C 6.73537040 8.57679019 7.33286155 0.00123695 -0.00683843 -0.00542420 0.19058081 -3.48215539 0.06037420
C 4.54462270 6.13438022 6.32690440 -0.00188888 0.00653739 0.00517770 0.22015073 0.19214440 0.78003651
C 0.70657398 7.44251233 0.55391214 0.03119181 -0.00717059 0.01350739 81.90843514 -19.57635450 32.50125377
C 9.57308914 4.76210019 2.44054917 -0.00247531 0.00128676 -0.00591058 -5.04028448 -3.91738908 0.57323436
C 0.89494629 3.97764062 1.55391412 0.00063689 0.00368975 -0.00355901 -0.76036074 -0.77396419 1.18725677
C 8.46097879 5.88114630 2.56097226 0.00878324 0.00139562 0.00584225 1.23104114 0.81990935 -1.24485987
C 3.10599192 1.11129223 1.35746597 0.00400716 0.00202927 -0.00812359 -1.20690455 0.26650774 0.02597444
C 0.78352722 1.00352222 6.97818124 0.00415154 0.00408444 0.00662586 1.08879587 -2.66094290 1.60491365
C 4.55900175 9.09776922 7.06459050 0.00458614 0.00523359 0.00731077 -2.85223248 0.28474359 -0.47236074
C 5.09073328 0.77175251 6.01629982 0.00459103 0.00776044 0.00832428 2.01106358 3.61488201 2.00286527
C 7.03431163 4.78159250 9.32214069 -0.00055512 0.00152968 -0.00702129 -6.53984798 4.62384397 -3.91376639
C 4.95544352 5.16493121 0.77382425 0.00773168 0.00633038 -0.00660673 4.55159669 0.44608544 1.33701476
C 2.06697322 5.47643767 6.43973454 0.00130299 -0.00443059 0.00157744 -2.21641705 -0.24464089 0.38069164
C 3.41560054 5.21986307 7.00743676 -0.00466166 0.00277367 -0.00336083 0.11901322 -0.57113734 0.25498113
C 6.75139348 7.05970148 7.81294862 -0.00316158 -0.00428274 -0.00598338 0.11189727 0.83599370 2.31045958
C 2.97885080 3.69988838 2.64749621 0.00248425 -0.00391890 0.00197160 0.08327954 1.87406883 0.23747918
C 5.18796158 5.56375354 3.95491942 0.00016132 0.00715555 -0.00405085 -0.29939787 -0.71701652 -0.59821125
C 9.36821202 9.23006283 4.10687745 -0.01408229 -0.01220554 -0.00006390 -37.13225856 -38.73578689 14.48671929
C 3.75693106 5.24048850 8.46946388 -0.00111284 0.00086077 0.00660938 -0.33337701 -0.91553234 -0.38466385
C 2.23747822 7.67929068 0.30126005 -0.00088393 -0.00073783 0.00650546 -1.74815117 5.15741115 3.69574578
C 0.31338445 0.92008302 0.05425933 0.00497234 -0.00924978 0.00026235 13.39933449 -2.58383749 9.37106294
C 4.09380986 9.62792922 4.69629840 0.00663520 0.00240589 -0.00444428 12.53652578 -6.92968939 0.51616081
C 0.72434911 3.44512858 9.11034463 0.00507260 0.00022947 -0.00523025 7.04708789 1.96908684 -10.07056736
C 7.76088906 6.56732315 4.91901993 -0.00289095 0.00281789 -0.00436240 0.74689421 -1.00899188 1.63740567
C 6.82202140 8.18088477 3.38947756 0.00266325 -0.00775409 -0.00070308 1.24944846 -0.27104499 1.66649458
C 9.59469436 9.24078612 9.66159619 0.00251433 0.00450013 0.00068519 0.04970128 4.88981717 -4.90722515
C 8.24500156 5.07933532 0.18703267 -0.00127994 -0.00376616 0.01124063 1.41539002 3.73088151 23.14172232
C 9.05739296 6.02893540 8.41112701 0.00048322 0.00453657 -0.00258396 -2.66336245 2.64200631 -0.25137771
C 0.99041133 6.52293444 2.95591864 0.00526372 -0.00485077 0.00642160 2.77699469 0.43517783 1.00326074
C 1.84393041 8.64717071 9.09388109 0.00328726 0.00111141 -0.00408372 2.23288526 -2.71203625 1.28268952
C 6.39382780 2.40165113 1.49778328 0.00060163 -0.00668373 -0.00530013 -0.93655970 0.43606417 -3.22020883
C 9.92466377 7.66758116 0.31599387 -0.02479321 0.00948511 -0.01585446 -78.49294859 16.46680926 -24.17089053
C 3.37172966 8.66052659 2.65689689 -0.00709050 -0.00335237 0.00078090 -2.66438149 -2.28796033 -0.03981448
C 8.84197178 1.18087278 5.77332359 -0.00226406 0.00484027 -0.00373360 -9.05219111 5.89437071 -1.26274133
C 3.75908088 3.75926141 6.57156909 0.00439384 -0.00378604 -0.00314087 0.43061417 -0.26751619 0.22418614
C 0.49121767 4.11901229 7.82181211 -0.00421768 0.00953551 -0.01037562 3.09631562 4.83804680 -3.50481992
C 6.90646500 3.75967895 1.40375064 0.00639912 -0.00327351 -0.00479851 1.55387270 -0.92733877 0.72413276
C 6.87252126 3.65396989 6.47541081 -0.00120626 0.00710722 0.00653026 0.15554514 -0.23071248 -0.57398997
C 2.20792534 5.19087682 0.20672999 -0.00169113 0.00082888 0.01239116 -16.47307757 -5.59671729 47.80032021
C 5.91200624 2.17466740 0.06173585 0.02060648 0.02898511 0.02999072 42.17623576 77.22501538 64.06603775
C 7.33006859 3.14976264 7.85563077 0.00636354 0.00643723 0.00561228 -0.98356045 -0.13795303 -0.69335806
C 1.89276488 6.01292220 9.67760791 -0.01312754 0.01301962 -0.01076100 -19.00250445 21.28057673 -27.01062403
C 0.06390283 5.82632931 5.37896791 -0.00352400 0.00775443 0.00532779 -0.36582306 3.52324260 -0.92148988
C 3.77351209 5.80747591 3.76830105 0.00640965 0.00040742 0.00098977 0.51677286 1.59716827 0.46985220
C 4.52723945 2.80211939 4.39226192 -0.00529582 -0.00376204 0.00583451 0.31053729 0.29519766 0.72845628
C 6.08213186 8.19457299 0.72691218 0.00504997 0.00099418 0.01387702 11.49772367 4.33506203 20.65171765
C 9.31995241 7.88319874 3.87247051 -0.00008175 -0.00398538 -0.00362326 -0.33402609 -0.98124168 2.97825406
C 7.02733481 7.82608600 4.74443008 0.00268432 0.00414985 -0.00607139 -0.74812869 1.67769506 -0.65097888
C 4.87576667 8.73811553 5.70800731 0.00172803 -0.00168012 0.00557703 0.47642379 -3.30048269 0.82090483
C 0.76061633 1.11945696 9.61045765 0.00509010 -0.00710920 -0.00483168 5.29007019 -3.97396860 1.49548873
C 3.50870359 7.04623083 4.45360783 0.00021764 -0.00670482 -0.00618137 0.50803072 -0.86056472 0.35056663
C 3.44893713 8.22990922 1.33209366 -0.00276238 -0.00200895 0.00706175 -2.41377808 2.49426186 1.24008895
C 5.62675224 6.06987448 7.44582044 0.00628166 0.00165970 0.00442502 0.07323760 -0.16127239 -2.15465194
C 4.53880830 2.79818160 0.44811934 0.00724294 0.00086292 -0.00168554 3.69633433 2.69215524 3.39875688
C 1.19276786 7.76905404 3.55699318 0.00059460 0.00178731 0.00161148 5.34473601 -1.46076810 1.51449793
C 3.30774352 2.55865494 8.67664887 -0.00439086 -0.00546994 -0.00922619 0.16338268 1.15801525 -4.34468042
C 6.25404358 5.05860831 6.35442656 -0.00624600 0.00201114 -0.00176841 0.84755633 -0.34152571 1.35696987
C 9.05453169 3.73480988 3.39548487 -0.00260315 -0.00219379 -0.00683495 1.60627547 1.83323182 -1.16971300
C 2.75929504 4.83679090 9.47239673 0.00942821 -0.00467418 -0.01399559 28.04201317 -28.47000215 -36.75383646
C 5.28613622 9.28175020 9.39754418 -0.00523864 0.00403643 0.00207399 -1.95407269 4.34761409 -4.97988871
C 0.48487489 0.94566562 1.47625267 0.00030318 -0.00561422 0.00310690 0.12521237 0.29667327 -5.34234296
C 1.77833685 1.66751623 2.10211774 0.00081062 -0.00090994 -0.00597879 -3.97415048 -2.52997425 -1.16152858
C 6.47783940 0.02481715 6.46575883 0.00011235 0.00080689 0.00189526 -1.46158019 5.59097784 -8.24981378
C 3.86545980 2.60788467 7.39603896 -0.00256016 -0.00396346 -0.00273490 -1.19495840 1.10012723 1.38463535
C 0.64737711 9.41461014 1.93477063 0.00398205 0.00447162 0.00542366 -0.31386657 5.97895902 -4.05067423
C 5.15337958 5.13564386 5.35526300 -0.00240050 0.00628315 -0.00628752 0.77162102 0.14759501 -0.32496949
C 7.27371988 1.73262717 7.66833776 -0.00245723 -0.00978403 0.00468168 -1.51152570 -3.73755912 0.23384368
C 7.73037072 0.52326006 8.30092466 0.00417788 -0.00190578 -0.00516458 0.54064440 4.25531835 2.61607682
C 8.73104079 3.68004252 8.05698670 0.00412121 0.00325501 -0.00715411 -3.36005840 -0.16807693 -0.15138917
C 2.24304758 8.95795947 6.35671280 -0.00190397 0.00693218 0.00456571 -2.12009284 -1.78584465 4.46383900
C 0.33396636 2.81091356 5.55890005 -0.00316279 0.00040688 0.00160140 4.08026513 2.64736248 -8.38695878
C 6.06444499 5.74799299 9.75797369 -0.00792898 -0.00725260 -0.00502809 -1.60328821 -1.15919446 -7.49844987
C 7.60185839 5.69332328 6.15150027 -0.00304999 0.00224368 0.00463040 0.90031371 -0.17327617 -1.19474529
C 2.68660978 9.19999000 5.03362018 -0.00919821 -0.01523080 -0.00634502 -7.91226582 -19.24743285 3.57223779
C 2.82907851 4.95639952 3.27012845 -0.00057922 0.00364026 0.00186819 -0.24331714 -1.79075727 -1.66873952
C 0.51177218 8.91128174 3.22737324 0.00372251 -0.00789474 -0.00247449 11.07256152 -3.77559236 -7.68754336
C 9.06028230 7.33279253 2.59306315 -0.00096555 -0.00063094 0.00160211 -6.31850608 -2.32406479 -0.64990257
C 4.37376831 7.34917527 5.53763866 -0.00327440 -0.00383986 0.00520848 -2.29728334 -1.08334262 -1.91752897
C 8.12876242 4.29177251 5.81253792 -0.00024019 -0.00536131 0.00189274 0.71549891 0.56312431 -0.08759096
C 9.31506135 3.87633833 6.59855661 -0.00049784 0.00188493 0.00209249 -1.64117775 0.48947661 0.56238347
C 9.98046953 3.38743518 0.12489949 -0.00509585 0.00562580 -0.00132446 -3.52386460 1.04722778 13.09348607
C 4.13770510 1.54150173 2.34998457 -0.00658914 0.00560345 -0.00585095 -1.03134551 -2.70950945 -0.11334111
C 6.05957840 0.72157664 3.87173978 -0.00044661 -0.00302383 0.00453932 -0.68469058 4.06703238 -1.42028535
C 7.77633035 9.47784421 1.59400246 -0.00778733 -0.02462130 0.01590787 -12.01948669 -55.11092224 23.88975261
C 1.01209288 8.32101725 6.88929184 -0.00277563 0.00554865 0.00192521 0.12819394 1.72137104 0.30714589
C 7.92505292 9.21273447 7.85393715 -0.00676223 -0.00496214 0.00385632 2.97483028 -1.90863637 -2.11832212
C 5.60874441 9.39161010 7.88086996 0.00187129 0.00504337 -0.00218103 0.66445250 -0.36531239 2.63662696
C 6.52631004 3.55736155 9.03080951 -0.00461103 -0.00777648 0.00200782 1.26709078 -6.46832353 0.66799149
C 1.13202523 7.75679164 8.21197826 -0.00648597 0.00335844 0.00270996 0.81860689 1.98379380 -2.73446454
C 5.54505868 1.56261120 9.53173556 -0.01424779 -0.03426492 -0.02885310 -42.68969172 -72.49061705 -67.21873806
C 6.61607644 7.10631439 9.43149509 -0.00420579 -0.00270547 -0.00567958 -1.39980043 -3.36076559 -3.22332934
C 8.23031123 9.04819126 9.29249984 -0.00163621 -0.00133995 -0.00584034 2.12260751 -3.96164573 -1.17063247
C 9.12538861 9.93792010 5.43466516 -0.02259478 -0.00941184 0.00118686 -58.24269024 -3.26635598 6.87580865
C 1.18353375 5.24354608 1.09916012 -0.00021651 -0.00456090 0.00255124 2.96208627 -3.07972913 -1.24207028
C 2.94323763 6.33379430 0.30633740 0.00020740 0.00648197 0.00377410 8.66361469 10.47588487 8.63106467
C 2.56575295 8.08824968 3.96934663 0.00678837 0.00231291 0.00374881 -0.31015597 -1.23680714 -1.76226128
C 4.31147215 6.37348182 0.61098302 0.00157536 -0.00376473 0.00332944 -5.49427392 -1.38566172 3.27250120
C 5.04807052 5.57086989 8.67134983 -0.00880371 0.00036842 0.00430757 -0.60805617 0.27022805 -2.52022277
C 4.93520087 0.48474383 2.82700869 0.00343250 0.00309004 0.00027345 3.09129544 2.40060286 0.80854309
C 2.03337956 1.30847365 4.76207946 -0.00171296 -0.00220565 0.00126685 -0.25525867 0.62415758 -3.84064693
C 7.90750311 0.36546078 1.26576652 0.00886930 0.02502049 -0.01246247 8.67959957 55.51974289 -17.15156484
159
Time=2.00000000 pbc="T T T" Lattice="10.00000000 0.00000000 0.00000000 0.00000000 10.00000000 0.00000000 0.00000000 0.00000000 10.00000000" energy=-173.89864826 virial="384.30298907 -3.96693189 -18.44778628 -3.96693189 351.00593732 -27.89058545 -18.44778628 -27.89058545 293.86877859" stress="0.43974359 -0.00396693 -0.01844779 -0.00396693 0.39508849 -0.02789059 -0.01844779 -0.02789059 0.34357767" Properties=species:S:1:pos:R:3:vel:R:3:forces:R:3
C 0.21329366 9.89449509 4.18220808 0.06605179 0.01338273 0.03725452 32.41918220 9.29085548 11.80884931
C 9.52173982 2.57572733 3.83663094 0.01296576 0.00188295 -0.00126926 6.53408801 -3.87466998 2.90303474
C 3.32257833 1.99274000 0.06624766 -0.06277564 0.01149974 0.03714100 -30.73119409 -1.51385327 25.56930097
C 4.15604966 2.93500397 3.00226000 -0.00087747 0.00013908 0.00463220 -1.68762417 0.58763688 2.51322878
C 0.15250101 8.84809841 0.81136217 0.00038190 -0.00108809 0.01288468 0.02422049 1.93639369 4.36403476
C 4.50617043 9.14270150 3.31463739 0.00393186 0.00603387 0.00315073 -2.78956358 3.18067331 -0.21591812
C 7.31549021 7.35360501 1.01436896 -0.00732524 0.00002717 -0.00832859 -1.61139079 -1.45237974 -0.30875721
C 9.67447556 2.34751139 6.59878245 -0.01299069 -0.00992816 0.01129168 -6.55085033 -3.17663321 4.45635072
C 3.91257006 9.92623471 9.71934417 -0.00464577 -0.00648768 -0.00720116 1.18986346 -4.95676143 -0.58431750
C 9.42566889 4.46993474 0.96757604 -0.00608280 0.00729635 -0.00479109 -0.58698883 -0.62803333 -0.40045724
C 3.00520983 0.26453592 4.66599784 -0.00726001 0.03220561 -0.00448380 -5.39271750 17.71369120 -3.45124736
C 0.72306538 6.41171161 1.63466824 -0.00371535 0.00509061 -0.00099673 0.52700930 0.26293657 0.82480059
C 0.91017889 5.49991389 7.41430626 0.00186342 0.00478735 -0.00265464 1.95029470 -2.18081927 1.21123044
C 0.16247740 9.82809266 5.47057241 0.06749541 -0.00907198 0.01065417 32.41950234 -4.78619342 5.49387534
C 9.23819927 7.04375983 9.41112775 -0.00724907 0.00156373 -0.00917054 -5.67064472 -3.75062357 -6.79997979
C 1.60163269 5.49257705 3.70813381 -0.00271992 0.00450270 0.00806444 -0.20285608 -0.43902418 1.59176847
C 5.47847319 7.93568150 9.72456265 -0.01589607 0.01013049 -0.02152277 -5.39070960 2.83513240 -15.35544065
C 9.73914290 2.64979182 8.20893787 -0.00883255 -0.01172792 0.00470238 -1.36807762 -5.37213096 1.44870376
C 6.44135597 8.75651144 5.73553446 0.00560194 -0.00448569 -0.00582680 -0.76034825 -1.36862643 1.30732562
C 7.75908030 8.06754997 2.22375413 -0.00183020 0.00072869 -0.00845049 4.82256714 0.63250858 -0.84628316
C 2.00584929 3.12325018 1.70784252 -0.00403663 0.00496846 0.00392312 -0.39449810 -2.21828685 -0.22888721
C 2.96618695 9.39304899 8.73845266 0.00451523 -0.00274551 0.00053187 -0.71204979 1.07615807 0.29700179
C 9.23726093 9.40929413 6.93353086 0.00007191 0.00000061 0.00025825 1.81485830 -3.22990583 0.54140747
C 6.16679069 5.38861874 3.06491469 0.00501813 0.00010442 -0.00597725 1.59090712 -0.18308402 1.60241201
C 2.21981208 3.44050858 9.28524463 -0.00252299 0.06089270 -0.06792402 0.51661182 23.08823026 -32.69962404
C 9.52979639 1.61603952 9.35585682 -0.00762414 0.00471879 -0.00397403 -6.75393994 5.39798640 -4.92452419
C 1.12203485 1.62458835 5.75514758 0.00917984 -0.00096112 0.00222798 5.34976981 1.53713712 0.28274072
C 1.23362479 1.38287616 3.50999512 -0.00043225 0.00279630 0.00612971 4.08038556 3.62593211 0.32479009
C 0.92842102 6.32662914 8.65645223 0.00676102 -0.00171861 -0.01037579 1.28754047 1.47244386 -4.47692604
C 4.69386507 7.72273423 0.77741770 0.00328608 -0.00857410 0.00844559 -2.88236941 -4.76874687 4.55474271
C 9.27851103 6.99831407 4.95124385 0.00610170 -0.00568141 0.00575766 -1.15262673 -5.68720844 2.24259196
C 7.57912076 3.72856087 0.15082031 0.00230371 -0.00619691 0.01224706 -3.15575684 -3.25166786 4.17038316
C 8.79305091 1.60413621 1.19068335 -0.00095239 0.00481745 0.00983832 0.83570895 0.33874865 5.43793154
C 7.40755503 1.31506598 6.25498543 0.00434055 -0.00071921 -0.00581148 -2.17878948 0.03222844 -0.78501895
C 7.50672742 1.58513613 2.03713881 0.00788681 0.00857902 -0.00652164 0.17581749 2.22416855 -0.16884166
C 8.50014174 4.74677391 9.07897709 0.01379506 0.00540956 -0.02954936 5.95383126 3.62506562 -21.10580760
C 5.89815122 1.27982601 8.18199404 0.00054810 -0.00512361 0.00276196 -0.76128164 -1.36624336 -4.02887878
C 7.17544966 2.85587680 4.21331666 -0.00501602 -0.00149849 -0.00392413 -1.65745477 -0.30524948 0.52462886
C 1.41558730 5.48978499 5.14908405 -0.00673631 -0.00257299 0.00127598 -1.26947418 1.08427946 1.05380573
C 5.80199745 8.92249827 2.89583247 0.00311250 -0.00650090 0.00566559 3.39859941 -0.71947283 -0.75679312
C 6.64053309 2.44426993 5.48854667 -0.00695576 -0.00610131 0.00057725 -0.22076156 0.36125736 0.55433427
C 4.40416373 3.84413336 5.38235610 0.00335697 0.00705821 0.00515718 -0.61472930 -0.66570153 -1.53932983
C 6.30122576 5.04405406 1.62637999 0.00216365 -0.00232600 0.01045138 -1.06005998 -0.21322588 5.09896240
C 4.80683194 1.56450277 7.21665550 -0.00252827 -0.00364931 -0.00541649 0.06726391 -0.13846779 -0.81759567
C 2.23789126 2.80118288 0.10393976 0.00495357 -0.05938425 0.07499275 1.35821519 -22.59283675 37.21180570
C 7.96689980 4.09025128 4.24868138 0.00379217 -0.00429789 0.00661056 -0.05112101 1.63527279 1.27404426
C 7.36943025 1.55512963 3.52201924 -0.00564802 0.00304553 -0.00818019 -0.26915933 -0.46246084 -0.79425978
C 7.58827058 5.51916505 3.71286400 0.00477602 -0.00729340 0.00023850 -2.26439142 0.30240478 -0.11634768
C 3.24175263 9.27170719 7.36925965 -0.00657135 -0.00507593 0.00373092 -0.43287023 -0.46697235 -0.67880549
C 7.96676409 6.37407014 7.43002606 0.00532846 0.00175298 0.00695297 1.43703768 -0.45125066 -0.98436527
C 6.25256544 9.45789862 1.56489593 -0.00068759 0.00086232 -0.00785009 -2.80140270 -2.89351592 -0.49539709
C 7.53822730 5.91532387 1.28618073 -0.00282854 0.00125916 -0.00470604 2.20995658 0.81763619 1.84483506
C 5.36686178 1.67366031 4.87788269 -0.00423749 -0.00421946 0.00055009 2.35621386 0.74548845 1.26790518
C 4.15603861 1.87824825 9.54046283 0.06191970 -0.01159037 -0.03541225 28.08724161 -5.07367159 -22.34501116
C 8.42286188 0.43382124 9.54102671 -0.01367608 -0.00007263 0.00551179 -4.59975804 4.65934052 -2.26153806
C 8.78597112 1.26921116 4.16355073 -0.00799297 0.01198994 -0.01145536 -2.36579794 4.87848678 -3.05471383
C 9.50604248 0.13674271 3.33215734 -0.02527555 0.02693450 -0.03826666 -17.61643907 16.86083952 -16.71466577
C 4.91523307 2.65755090 1.86248443 -0.00294632 -0.01025470 0.00416038 3.42288630 -1.58140796 -2.96401340
C 6.73668389 8.56855314 7.32746161 0.00134191 -0.00958544 -0.00532290 0.07075400 -3.35709826 0.19183495
C 4.54282224 6.14099479 6.33239541 -0.00169221 0.00660974 0.00577760 0.26950519 -0.01203549 0.71352229
C 0.77066461 7.42747883 0.58047378 0.08223877 -0.02002177 0.03531796 45.18355034 -12.41934047 21.80068552
C 9.56858937 4.76181352 2.43486883 -0.00651320 -0.00188590 -0.00539491 -5.01287159 -3.98159776 0.71063757
C 0.89527778 3.98101950 1.55083197 -0.00018327 0.00304536 -0.00250259 -1.28159469 -0.83038420 1.44293567
C 8.47025648 5.88287124 2.56631451 0.00958412 0.00199193 0.00480474 0.76292658 0.66473808 -1.33824741
C 3.10951432 1.11342854 1.34935281 0.00282707 0.00169984 -0.00692197 -1.73117198 -1.08670472 2.96572670
C 0.78811608 1.00653788 6.98545172 0.00490997 0.00202066 0.00778037 0.79947174 -2.47726579 1.26946263
C 4.56244227 9.10311717 7.07171154 0.00213982 0.00539855 0.00678187 -3.23838835 0.12596484 -0.84444170
C 5.09613205 0.78096488 6.02542856 0.00614759 0.01049798 0.00978804 1.86431443 3.20080432 1.64147481
C 7.03112976 4.78497936 9.31354742 -0.00555065 0.00481353 -0.01002154 -5.89754847 3.55198921 -3.55596819
C 4.96500336 5.17144077 0.76775453 0.01150227 0.00665830 -0.00546353 4.83606509 0.37032132 1.50922075
C 2.06738598 5.47190882 6.44146489 -0.00052633 -0.00457364 0.00180126 -2.33806184 -0.11151047 0.17654045
C 3.41098669 5.22240734 7.00417834 -0.00442177 0.00230364 -0.00320621 0.47823223 -0.59910662 0.12998673
C 6.74827685 7.05575453 7.80789324 -0.00301445 -0.00357781 -0.00406175 0.25439972 0.91906275 2.47382868
C 2.98136850 3.69672221 2.64956319 0.00251362 -0.00226834 0.00222569 -0.01014630 2.23532346 0.39513621
C 5.18800265 5.57062110 3.95062830 0.00008199 0.00653558 -0.00455847 0.10189237 -0.82652405 -0.66561007
C 9.33921542 9.20229891 4.11263220 -0.03888907 -0.03523704 0.00770086 -24.62935401 -18.60588893 4.84526947
C 3.75568431 5.24098155 8.47591876 -0.00129072 0.00042502 0.00597748 -0.10947689 -0.16936871 -1.18859462
C 2.23589214 7.68062434 0.30924992 -0.00123652 0.00345582 0.00909495 0.87029838 5.28356032 2.75131297
C 0.32373868 0.90979543 0.05828560 0.01391295 -0.01097978 0.00745340 8.86016672 -1.72334661 8.53255543
C 4.10548040 9.62755178 4.69206143 0.01554239 -0.00272504 -0.00390188 9.63976655 -5.84483020 0.83425922
C 0.73225219 3.44614894 9.10106950 0.00925623 0.00226649 -0.01312486 3.36894298 3.10250122 -9.58470250
C 7.75829810 6.56973577 4.91531520 -0.00225701 0.00191125 -0.00294855 0.83143487 -1.24826189 1.88266834
C 6.82518650 8.17302181 3.38944384 0.00349752 -0.00798401 0.00053259 0.82763489 -0.30136598 1.40997397
C 9.59722865 9.24725027 9.66031037 0.00284913 0.00801420 -0.00290680 0.78384941 3.85916723 -4.03576295
C 8.24429012 5.07706769 0.20756825 0.00004325 -0.00136075 0.02822961 1.87897193 2.25786630 19.15587115
C 9.05680643 6.03453315 8.40844209 -0.00170023 0.00655323 -0.00277955 -2.77277779 2.37886349 -0.23560574
C 0.99679044 6.51825847 2.96274321 0.00742286 -0.00443121 0.00726237 2.59863131 0.60939565 1.09000292
C 1.84811452 8.64719281 9.09031257 0.00492402 -0.00110542 -0.00302394 1.84217417 -2.80721412 1.35584844
C 6.39405326 2.39514255 1.49118975 -0.00014083 -0.00559356 -0.00627314 -0.91193408 2.27813073 0.79769448
C 9.86834358 7.68368023 0.29043108 -0.07231883 0.01947752 -0.03089764 -39.83192145 8.41135015 -13.28221911
C 3.36356901 8.65625525 2.65766180 -0.00898709 -0.00505880 0.00087743 -2.05759029 -1.96053020 0.28014653
C 8.83607188 1.18808055 5.76908280 -0.00938305 0.00935995 -0.00505363 -8.67201648 5.35830989 -2.02374229
C 3.76364768 3.75536791 6.56851826 0.00467975 -0.00391317 -0.00287778 0.28123131 -0.04898040 0.43081588
C 0.48824364 4.13049102 7.81002876 -0.00200868 0.01352405 -0.01333492 2.40344451 5.09224661 -3.86296733
C 6.91348824 3.75603297 1.39924299 0.00729413 -0.00423144 -0.00410678 0.67444600 -1.45761300 0.99807182
C 6.87137748 3.66098444 6.48171052 -0.00108869 0.00678343 0.00602102 0.13717397 -0.57542089 -0.69387685
C 2.19961774 5.18945776 0.23832033 -0.01159505 -0.00324993 0.04574019 -8.18477801 -4.55833102 35.22898067
C 5.94955295 2.23467023 0.11745893 0.04310190 0.06972465 0.06212515 13.83077289 24.20447985 15.93927489
C 7.33603709 3.15614446 7.86096455 0.00542570 0.00598171 0.00492986 -1.35140051 -0.99616773 -1.00565930
C 1.87200491 6.03448924 9.65599799 -0.02675722 0.02811969 -0.03120396 -14.93140539 16.31415565 -23.88634274
C 0.06023190 5.83549887 5.38392558 -0.00376469 0.01053206 0.00459754 -0.23341173 3.39222356 -0.89660738
C 3.78012931 5.80852483 3.76947954 0.00666006 0.00163299 0.00124905 0.10667067 1.45414521 0.17567955
C 4.52206836 2.79847592 4.39838901 -0.00502498 -0.00346981 0.00639190 0.36378714 0.43236910 0.65929104
C 6.09179993 8.19730836 0.74908405 0.01300571 0.00386529 0.02884084 8.30975158 2.81315898 16.60381257
C 9.31973650 7.87881924 3.87004348 0.00003650 -0.00508563 -0.00147373 0.62844091 -1.75805388 2.37343776
C 7.02971865 7.83090970 4.73809722 0.00212147 0.00538273 -0.00653548 -0.65320832 1.39181580 -0.50445269
C 4.87768606 8.73510976 5.71391406 0.00205023 -0.00429107 0.00616419 0.32575380 -3.20003034 0.64096122
C 0.76783121 1.11075160 9.60622665 0.00913154 -0.01017672 -0.00454510 4.77193187 -3.66326481 -0.78199227
C 3.50912528 7.03918037 4.44756727 0.00066166 -0.00729165 -0.00577264 0.59744693 -0.60048587 0.66703966
C 3.44520525 8.22890211 1.33965349 -0.00462529 -0.00006080 0.00800232 -2.22433162 2.35605968 1.10166570
C 5.63306332 6.07146941 7.44938004 0.00613451 0.00144462 0.00266002 -0.43960036 -0.37422438 -2.23969480
C 4.54753589 2.80012584 0.44779893 0.00988716 0.00391820 0.00131200 2.88698739 4.91460463 4.06422895
C 1.19550920 7.77025463 3.55921296 0.00489328 0.00055619 0.00280737 5.35771656 -1.60436068 1.46290728
C 3.30341828 2.55365013 8.66567763 -0.00372479 -0.00428436 -0.01402147 1.49494438 1.79372188 -7.59418049
C 6.24813800 5.06048228 6.35320318 -0.00547253 0.00177142 -0.00064246 1.07816150 -0.25531228 1.44632932
C 9.05257371 3.73335241 3.38818011 -0.00130862 -0.00073996 -0.00773322 1.61671832 1.78639494 -1.06671594
C 2.77998643 4.82068163 9.44363882 0.02782578 -0.02426448 -0.03867728 17.76252334 -20.30408687 -24.69633553
C 5.28011271 9.28753287 9.39761798 -0.00693013 0.00711162 -0.00218552 -2.25723249 3.30869916 -5.62505459
C 0.48522836 0.94017057 1.47721380 0.00052001 -0.00525248 -0.00125521 0.41463221 0.60395196 -5.51801778