
96 atoms
2 atom types
   0.0000000000   10.1048401831 xlo xhi
   0.0000000000   10.2807000000 ylo yhi
   0.0000000000   10.2752045831 zlo zhi
   0.0000000000   -1.7274452626    0.0000000000 xy xz yz

Atoms # atomic

     1      1    1.2236616673    2.7840995368    1.0666611174
     2      1    0.3599390360    2.7840995368    6.2042634089
     3      1    1.2236616673    7.9244495368    1.0666611174
     4      1    0.3599390360    7.9244495368    6.2042634089
     5      1    6.2760817588    2.7840995368    1.0666611174
     6      1    5.4123591275    2.7840995368    6.2042634089
     7      1    6.2760817588    7.9244495368    1.0666611174
     8      1    5.4123591275    7.9244495368    6.2042634089
     9      1    3.3969057639    0.2139601002    1.5021329884
    10      1    2.5331831326    0.2139601002    6.6397352799
    11      1    3.3969057639    5.3543101002    1.5021329884
    12      1    2.5331831326    5.3543101002    6.6397352799
    13      1    8.4493258555    0.2139601002    1.5021329884
    14      1    7.5856032242    0.2139601002    6.6397352799
    15      1    8.4493258555    5.3543101002    1.5021329884
    16      1    7.5856032242    5.3543101002    6.6397352799
    17      1    2.9650330892    2.3562222611    4.0709435212
    18      1    2.1013104579    2.3562222611    9.2085458127
    19      1    2.9650330892    7.4965722611    4.0709435212
    20      1    2.1013104579    7.4965722611    9.2085458127
    21      1    8.0174531808    2.3562222611    4.0709435212
    22      1    7.1537305495    2.3562222611    9.2085458127
    23      1    8.0174531808    7.4965722611    4.0709435212
    24      1    7.1537305495    7.4965722611    9.2085458127
    25      1    0.7917897159    4.9264167628    3.6354717213
    26      1   -0.0719329154    4.9264167628    8.7730740129
    27      1    0.7917897159   10.0667667628    3.6354717213
    28      1   -0.0719329154   10.0667667628    8.7730740129
    29      1    5.8442098074    4.9264167628    3.6354717213
    30      1    4.9804871761    4.9264167628    8.7730740129
    31      1    5.8442098074   10.0667667628    3.6354717213
    32      1    4.9804871761   10.0667667628    8.7730740129
    33      2    0.1082001783    4.3682142696    1.6919143832
    34      2   -0.7555224530    4.3682142696    6.8295166748
    35      2    0.1082001783    9.5085642696    1.6919143832
    36      2   -0.7555224530    9.5085642696    6.8295166748
    37      2    5.1606202699    4.3682142696    1.6919143832
    38      2    4.2968976386    4.3682142696    6.8295166748
    39      2    5.1606202699    9.5085642696    1.6919143832
    40      2    4.2968976386    9.5085642696    6.8295166748
    41      2    4.5123655476    1.7980313152    0.8768975603
    42      2    3.6486429163    1.7980313152    6.0144998518
    43      2    4.5123655476    6.9383813152    0.8768975603
    44      2    3.6486429163    6.9383813152    6.0144998518
    45      2    9.5647856392    1.7980313152    0.8768975603
    46      2    8.7010630079    1.7980313152    6.0144998518
    47      2    9.5647856392    6.9383813152    0.8768975603
    48      2    8.7010630079    6.9383813152    6.0144998518
    49      2    4.0805231451    0.7721238090    3.4456891903
    50      2    3.2168005138    0.7721238090    8.5832914819
    51      2    4.0805231451    5.9124738090    3.4456891903
    52      2    3.2168005138    5.9124738090    8.5832914819
    53      2    9.1329432367    0.7721238090    3.4456891903
    54      2    8.2692206054    0.7721238090    8.5832914819
    55      2    9.1329432367    5.9124738090    3.4456891903
    56      2    8.2692206054    5.9124738090    8.5832914819
    57      2   -0.3236444625    3.3423333638    4.2607075039
    58      2   -1.1873670938    3.3423333638    9.3983097954
    59      2   -0.3236444625    8.4826833638    4.2607075039
    60      2   -1.1873670938    8.4826833638    9.3983097954
    61      2    4.7287756291    3.3423333638    4.2607075039
    62      2    3.8650529978    3.3423333638    9.3983097954
    63      2    4.7287756291    8.4826833638    4.2607075039
    64      2    3.8650529978    8.4826833638    9.3983097954
    65      2    1.8261123314    1.3336115558    2.4837937909
    66      2    0.9623897001    1.3336115558    7.6213960825
    67      2    1.8261123314    6.4739615558    2.4837937909
    68      2    0.9623897001    6.4739615558    7.6213960825
    69      2    6.8785324230    1.3336115558    2.4837937909
    70      2    6.0148097917    1.3336115558    7.6213960825
    71      2    6.8785324230    6.4739615558    2.4837937909
    72      2    6.0148097917    6.4739615558    7.6213960825
    73      2    2.7944467154    3.9037905181    0.0850021331
    74      2    1.9307240841    3.9037905181    5.2226044247
    75      2    2.7944467154    9.0441405181    0.0850021331
    76      2    1.9307240841    9.0441405181    5.2226044247
    77      2    7.8468668069    3.9037905181    0.0850021331
    78      2    6.9831441756    3.9037905181    5.2226044247
    79      2    7.8468668069    9.0441405181    0.0850021331
    80      2    6.9831441756    9.0441405181    5.2226044247
    81      2    2.3625885799    3.8067402856    2.6538041972
    82      2    1.4988659487    3.8067402856    7.7914064888
    83      2    2.3625885799    8.9470902856    2.6538041972
    84      2    1.4988659487    8.9470902856    7.7914064888
    85      2    7.4150086715    3.8067402856    2.6538041972
    86      2    6.5512860402    3.8067402856    7.7914064888
    87      2    7.4150086715    8.9470902856    2.6538041972
    88      2    6.5512860402    8.9470902856    7.7914064888
    89      2    1.3942530141    1.2365562220    5.0525956420
    90      2    0.5305303828    1.2365562220   10.1901979336
    91      2    1.3942530141    6.3769062220    5.0525956420
    92      2    0.5305303828    6.3769062220   10.1901979336
    93      2    6.4466731057    1.2365562220    5.0525956420
    94      2    5.5829504744    1.2365562220   10.1901979336
    95      2    6.4466731057    6.3769062220    5.0525956420
    96      2    5.5829504744    6.3769062220   10.1901979336
