159
Time=1.00000000 pbc="T T T" Lattice="10.00000000 0.00000000 0.00000000 0.00000000 10.00000000 0.00000000 0.00000000 0.00000000 10.00000000" energy=91.30049992 virial="-587.01723897 57.72284298 -64.39474012 57.72284298 -638.32595410 -50.78927042 -64.39474012 -50.78927042 -731.84373683" stress="-0.57868365 0.05772284 -0.06439474 0.05772284 -0.63177469 -0.05078927 -0.06439474 -0.05078927 -0.72298434" Properties=species:S:1:pos:R:3:vel:R:3:forces:R:3
C 0.16026316 9.88484407 4.14969663 0.01487808 0.00078652 0.00853595 23.10429960 6.75321674 11.99869668
C 9.51139850 2.57228810 3.83906622 0.00348404 0.00796473 -0.00519287 -3.69587672 3.70126653 -1.49156067
C 3.37301068 1.98063221 0.03937667 -0.01793393 0.00724392 0.00675657 -39.62271440 7.57296312 27.15747744
C 4.15624929 2.93510092 2.99863725 0.00047295 -0.00073897 0.00126998 -1.60918666 -0.44787169 -0.98908687
C 0.15212884 8.84996425 0.80023032 -0.00260168 0.00094162 0.00637946 -2.37150791 2.20927262 -0.16396460
C 4.50111812 9.13794516 3.31139993 0.00689405 0.00269312 0.00125492 -0.13462782 1.71280098 -4.94210166
C 7.32216823 7.35299448 1.02257355 -0.00507608 0.00078014 -0.00579845 0.56189370 -1.97769028 4.89974689
C 9.68483507 2.35616365 6.58928068 -0.00467752 -0.00592735 0.00320299 -0.62888885 0.49546361 -5.14793921
C 3.91769374 9.93073148 9.72631064 -0.00638401 -0.00506314 -0.00891173 -0.29315388 -7.87897253 -6.35463053
C 9.43151592 4.46238614 0.97220629 -0.00504616 0.00654011 -0.00362957 1.93680429 -3.47570634 1.51907361
C 3.01030383 0.23944508 4.66909544 -0.00028329 0.00476141 0.00222578 -1.26257777 -1.30130363 2.54036325
C 0.72699241 6.40672661 1.63599626 -0.00052906 -0.00064166 0.00068745 5.85214007 -6.71789765 2.84124348
C 0.90909882 5.49425061 7.41744739 0.00073560 0.00680578 -0.00291793 3.01699591 -1.50583172 3.19846257
C 0.10800340 9.83524225 5.46212488 0.01116494 -0.00064582 0.00381405 17.09317538 -2.11143024 0.79464322
C 9.24317070 7.04068964 9.41756706 -0.00301521 0.00517654 -0.00383227 -1.85709548 -2.22356653 -1.64153779
C 1.60427113 5.48789802 3.70070871 -0.00090223 0.00560381 0.00617853 3.35273471 2.03107595 0.29830825
C 5.49220406 7.92668976 9.73991784 -0.00788638 0.00832823 0.00029827 -0.52393305 3.30750844 0.10066414
C 9.74742596 2.65936201 8.20481737 -0.00810535 -0.00387963 0.00284221 -2.26889133 3.43171740 -0.38629678
C 6.43544863 8.76044741 5.74188635 0.00559226 -0.00229264 -0.00655098 -1.48479703 0.97085655 1.35110533
C 7.76284750 8.06707533 2.23186471 -0.00760696 -0.00099550 -0.00717812 -0.40944672 -0.32573509 -0.60456035
C 2.00972747 3.11739074 1.70382747 -0.00420810 0.00752140 0.00709217 -0.95994914 0.15101603 3.19853151
C 2.96138573 9.39622674 8.73804008 0.00480517 -0.00561536 -0.00102213 -0.82298443 -3.86428940 -2.91846323
C 9.23791797 9.40799621 6.93349006 -0.00296746 0.00389086 0.00092265 -1.58201694 -0.21250403 0.85292947
C 6.16241155 5.38844079 3.07153555 0.00177446 0.00062961 -0.00531937 -2.93061095 0.76885989 5.63937902
C 2.22254257 3.38888935 9.34003473 -0.00176610 0.01731582 -0.00796884 -0.29544795 26.38211465 -35.53698587
C 9.53470778 1.61348886 9.35785289 0.00616223 -0.00619505 0.00528378 8.00305724 -6.00990498 2.76578963
C 1.11500377 1.62616687 5.75303317 0.00264078 -0.00341761 0.00259370 1.26231849 -2.02781725 1.02211273
C 1.23569594 1.38153622 3.50399586 -0.00320941 -0.00053844 0.00558436 5.06568408 1.58180350 0.66847157
C 0.92217714 6.32893916 8.66502985 0.00689074 -0.00188179 -0.00694754 5.21742582 2.86078274 -4.30068278
C 4.68942127 7.72939295 0.77080155 0.00609229 -0.00505716 0.00289576 -2.08881259 -6.14987040 0.36652207
C 9.27194637 7.00171120 4.94638694 0.00711950 0.00060363 0.00109467 -0.63954115 -1.53754759 -4.48711091
C 7.57554953 3.73345174 0.14024830 0.00445358 -0.00054568 0.00670829 -4.99423540 1.45044470 -0.57762797
C 8.79433896 1.59945482 1.18302920 -0.00370225 0.00412192 0.00479728 -6.35176718 -2.04879093 4.00365604
C 7.40233936 1.31579813 6.26048161 0.00624124 0.00011038 -0.00416877 -0.54306108 1.57412085 1.09454107
C 7.49891122 1.57745046 2.04359264 0.00768832 0.00730129 -0.00583217 0.01765788 1.64528561 -0.33561927
C 8.48873806 4.74282038 9.10004922 0.00559718 0.00317109 -0.00238422 0.04760265 2.88983572 -3.69332688
C 5.89729735 1.28440086 8.17761387 -0.00026168 -0.00327487 0.00377709 -4.30476642 1.35505962 -1.63518667
C 7.17979995 2.85725268 4.21745150 -0.00274767 -0.00248499 -0.00268565 0.75284672 -3.52959323 4.38897210
C 1.42181371 5.49279348 5.14823134 -0.00697543 -0.00241278 0.00041556 -4.60383761 3.59448957 0.65782487
C 5.80025001 8.92871019 2.88986291 0.00088477 -0.00743657 0.00649044 4.94148551 -4.69746336 -0.00615427
C 6.64740018 2.45051635 5.48819207 -0.00540051 -0.00617692 -0.00147945 2.83653583 0.29063428 -3.29019201
C 4.40055985 3.83680777 5.37658064 0.00346855 0.00671400 0.00817803 -1.67134738 -2.29990226 3.72806227
C 6.29863633 5.04629442 1.61797662 0.00464512 -0.00267436 0.00557864 3.03443047 -1.51568157 4.03833628
C 4.80938723 1.56809646 7.22174360 -0.00198037 -0.00315706 -0.00477149 1.22594440 1.08669413 -0.18697295
C 2.23348323 2.85149264 0.04389327 0.00350994 -0.01562152 0.00916290 3.70147765 -28.19385195 38.57609367
C 7.96308710 4.09520599 4.24258254 0.00454849 -0.00724953 0.00402366 1.77113402 -2.40384716 -2.13835585
C 7.37497015 1.55189836 3.52988042 -0.00499504 0.00493599 -0.00712705 0.70907834 2.88217157 -0.56634789
C 7.58258506 5.52657990 3.71257878 0.00731601 -0.00733829 -0.00071851 -0.32131106 0.30325982 -2.88131011
C 3.24815012 9.27659556 7.36525609 -0.00427899 -0.00568500 0.00474918 3.33843207 -3.01394749 0.92887989
C 7.96201283 6.37213591 7.42267772 0.00140859 0.00250602 0.00785733 -4.96507502 0.54800546 0.29781511
C 6.25212783 9.45587411 1.57254703 0.00162933 0.00161449 -0.00568909 -2.66026592 -6.04903698 2.34998250
C 7.54194347 5.91439312 1.29162775 -0.00548900 0.00088628 -0.00624895 -0.10572893 1.80046138 1.25305557
C 5.37204565 1.67817920 4.87784186 -0.00656941 -0.00513368 -0.00076979 1.05798388 -0.30593368 0.31953762
C 4.10540025 1.88780076 9.56690012 0.01988886 -0.00032877 -0.00677932 38.26332557 -3.06119049 -26.09072208
C 8.43469045 0.43576531 9.53460657 -0.00950619 -0.00705544 0.00643481 -3.92536467 -3.03433681 -4.51074731
C 8.79301386 1.25918068 4.17377915 -0.00603502 0.01000121 -0.00600839 -3.28364394 9.66137075 -0.31754361
C 9.52424232 0.11658043 3.36371049 0.00367927 -0.00401199 0.00158730 -11.43536621 8.50629823 -11.70955300
C 4.91955420 2.66717042 1.85713354 -0.00768170 -0.00994862 0.00782757 -2.85294378 -4.30480683 3.19685501
C 6.73537040 8.57679019 7.33286155 0.00111867 -0.00455244 -0.00493227 -0.10389023 2.20929396 1.28511772
C 4.54462270 6.13438022 6.32690440 -0.00159732 0.00668794 0.00411255 0.94603992 0.56694782 -1.87188837
C 0.70657398 7.44251233 0.55391214 0.02049328 -0.00598723 0.00892972 55.27223110 -16.63015223 21.10419893
C 9.57308914 4.76210019 2.44054917 -0.00253639 0.00160269 -0.00628592 -5.19234192 -3.13081717 -0.36123145
C 0.89494629 3.97764062 1.55391412 0.00300549 0.00593234 -0.00504053 5.13677049 4.80943298 -2.50127411
C 8.46097879 5.88114630 2.56097226 0.00723004 0.00113727 0.00689331 -2.63595676 0.17668826 1.37196696
C 3.10599192 1.11129223 1.35746597 0.00450242 0.00311818 -0.00623427 0.02615333 2.97757912 4.72984791
C 0.78352722 1.00352222 6.97818124 0.00443485 0.00661019 0.00261280 1.79414895 3.62742841 -8.38644075
C 4.55900175 9.09776922 7.06459050 0.00411594 0.00621734 0.00782413 -4.02288318 2.73400140 0.80575299
C 5.09073328 0.77175251 6.01629982 0.00456577 0.00928898 0.00845328 1.94817257 7.42049853 2.32404015
C 7.03431163 4.78159250 9.32214069 0.00179361 -0.00184020 -0.00488734 -0.69220161 -3.76616248 1.39915633
C 4.95544352 5.16493121 0.77382425 0.00637656 0.00906695 -0.00763392 1.17773628 7.25934212 -1.22037563
C 2.06697322 5.47643767 6.43973454 0.00134135 -0.00476693 0.00156471 -2.12092467 -1.08202717 0.34899759
C 3.41560054 5.21986307 7.00743676 -0.00511524 0.00223193 -0.00309022 -1.01026845 -1.91991267 0.92873217
C 6.75139348 7.05970148 7.81294862 -0.00225181 -0.00639714 -0.00755794 2.37694728 -4.42825019 -1.60973373
C 2.97885080 3.69988838 2.64749621 0.00268979 -0.00381341 0.00251517 0.59501152 2.13669491 1.59082520
C 5.18796158 5.56375354 3.95491942 0.00062446 0.00640196 -0.00533998 0.85367954 -2.59322698 -3.80777115
C 9.36821202 9.23006283 4.10687745 -0.00508868 -0.00353206 -0.00590684 -14.74078846 -17.14135313 -0.06047535
C 3.75693106 5.24048850 8.46946388 0.00145239 0.00148391 0.00687797 6.05331206 0.63589674 0.28404236
C 2.23747822 7.67929068 0.30126005 -0.00045387 -0.00384555 0.00507298 -0.67742133 -2.57990140 0.12929678
C 0.31338445 0.92008302 0.05425933 -0.03194667 -0.02047205 0.02882730 -78.51817989 -30.52399874 80.48942280
C 4.09380986 9.62792922 4.69629840 0.00075247 0.00510421 -0.00446869 -2.10974026 -0.21166253 0.45538870
C 0.72434911 3.44512858 9.11034463 0.00042301 0.00100126 -0.00072448 -4.52902904 3.89062226 1.14748836
C 7.76088906 6.56732315 4.91901993 -0.00308661 0.00370654 -0.00494696 0.25976714 1.20349032 0.18201073
C 6.82202140 8.18088477 3.38947756 0.00134113 -0.00632984 -0.00106077 -2.04223347 3.27492869 0.77594805
C 9.59469436 9.24078612 9.66159619 0.00192874 0.00277275 0.00369849 -1.40825105 0.58913224 2.59501028
C 8.24500156 5.07933532 0.18703267 -0.00209041 -0.00583371 0.00289320 -0.60244077 -1.41672957 2.35907593
C 9.05739296 6.02893540 8.41112701 0.00016990 0.00499562 -0.00144177 -3.44342315 3.78489715 2.59232306
C 0.99041133 6.52293444 2.95591864 0.00529927 -0.00430856 0.00590570 2.86550194 1.78512269 -0.28118335
C 1.84393041 8.64717071 9.09388109 0.00411763 0.00112597 -0.00592875 4.30026728 -2.67577696 -3.31089813
C 6.39382780 2.40165113 1.49778328 0.00160646 -0.00502182 -0.00448004 1.56519085 4.57372975 -1.17842883
C 9.92466377 7.66758116 0.31599387 -0.01374142 0.00761739 -0.01403957 -50.97724438 11.81673229 -19.65234637
C 3.37172966 8.66052659 2.65689689 -0.00420650 -0.00318635 -0.00013708 4.51591802 -1.87461621 -2.32530549
C 8.84197178 1.18087278 5.77332359 -0.00104827 0.00297713 -0.00460158 -6.02522683 1.25569463 -3.42375845
C 3.75908088 3.75926141 6.57156909 0.00635057 -0.00466346 -0.00469117 5.30230701 -2.45203856 -3.63561440
C 0.49121767 4.11901229 7.82181211 -0.00466200 0.00864665 -0.00861014 1.99008989 2.62505129 0.89070177
C 6.90646500 3.75967895 1.40375064 0.00429046 -0.00296878 -0.00594243 -3.69607973 -0.16863436 -2.12391448
C 6.87252126 3.65396989 6.47541081 -0.00013646 0.00771402 0.00641355 2.81903777 1.28004867 -0.86456817
C 2.20792534 5.19087682 0.20672999 0.00141491 0.00042695 0.00363830 -8.73994803 -6.59741092 26.00824177
C 5.91200624 2.17466740 0.06173585 0.01058567 0.00862616 0.01634990 17.22737002 26.53718472 30.10439301
C 7.33006859 3.14976264 7.85563077 0.00699992 0.00556163 0.00527548 0.60082756 -2.31794915 -1.53188169
C 1.89276488 6.01292220 9.67760791 -0.00729256 0.01178518 -0.00474166 -4.47509623 18.20718098 -12.02423233
C 0.06390283 5.82632931 5.37896791 -0.00190811 0.00726515 0.00456828 3.65727916 2.30507135 -2.81245220
C 3.77351209 5.80747591 3.76830105 0.00605102 -0.00016952 0.00148393 -0.37612936 0.16077203 1.70015629
C 4.52723945 2.80211939 4.39226192 -0.00463247 -0.00307880 0.00635960 1.96209455 1.99627799 2.03578788
C 6.08213186 8.19457299 0.72691218 0.00026983 -0.00083748 0.00810274 -0.40340614 -0.22522044 6.27543712
C 9.31995241 7.88319874 3.87247051 -0.00124356 -0.00592898 -0.00459162 -3.22659003 -5.82023835 0.56730761
C 7.02733481 7.82608600 4.74443008 0.00300644 0.00370061 -0.00780257 0.05384129 0.55922381 -4.96111107
C 4.87576667 8.73811553 5.70800731 0.00079696 -0.00197299 0.00698629 -1.84166259 -4.02963620 4.32956028
C 0.76061633 1.11945696 9.61045765 0.03176803 0.00916736 -0.03727635 71.71028805 36.54990435 -79.28222895
C 3.50870359 7.04623083 4.45360783 0.00098540 -0.00656488 -0.00597392 2.41953617 -0.51217347 0.86704385
C 3.44893713 8.22990922 1.33209366 -0.00025085 -0.00228775 0.00827190 3.83919144 1.80011648 4.25301385
C 5.62675224 6.06987448 7.44582044 0.00585301 0.00121782 0.00631946 -0.99397871 -1.26144031 2.56194544
C 4.53880830 2.79818160 0.44811934 0.00603632 0.00020079 -0.00253772 0.69219255 1.04365134 1.27706766
C 1.19276786 7.76905404 3.55699318 -0.00033889 0.00188426 0.00010911 3.02061391 -1.21940172 -2.22597206
C 3.30774352 2.55865494 8.67664887 -0.00339505 -0.00597349 -0.00914775 2.64264870 -0.09569588 -4.14939249
C 6.25404358 5.05860831 6.35442656 -0.00577896 0.00232760 -0.00284202 2.01035553 0.44636661 -1.31599990
C 9.05453169 3.73480988 3.39548487 -0.00330482 -0.00458158 -0.00439729 -0.14069086 -4.11164999 4.89934766
C 2.75929504 4.83679090 9.47239673 0.00410550 0.00164149 -0.00820796 14.79000783 -12.74582982 -22.34433937
C 5.28613622 9.28175020 9.39754418 -0.00561706 0.00263349 0.00213124 -2.89622980 0.85468626 -4.83735573
C 0.48487489 0.94566562 1.47625267 0.00113765 -0.00698257 0.00502796 2.20279932 -3.11013103 -0.55946055
C 1.77833685 1.66751623 2.10211774 0.00201297 0.00066363 -0.00581396 -0.98064590 1.38776541 -0.75113696
C 6.47783940 0.02481715 6.46575883 0.00043233 -0.00158089 0.00295097 -0.66491625 -0.35389042 -5.62141013
C 3.86545980 2.60788467 7.39603896 -0.00071399 -0.00440137 -0.00274707 3.40147555 0.00986293 1.35433289
C 0.64737711 9.41461014 1.93477063 0.00222604 0.00191766 0.00552039 -4.68579483 -0.37964161 -3.80983329
C 5.15337958 5.13564386 5.35526300 -0.00272931 0.00603534 -0.00600993 -0.04701737 -0.46935794 0.36615241
C 7.27371988 1.73262717 7.66833776 -0.00224992 -0.00956904 0.00434369 -0.99538469 -3.20228828 -0.60765143
C 7.73037072 0.52326006 8.30092466 0.00534386 -0.00426366 -0.00578109 3.44360197 -1.61511552 1.08115582
C 8.73104079 3.68004252 8.05698670 0.00505620 0.00242411 -0.00679229 -1.03221214 -2.23675864 0.74942398
C 2.24304758 8.95795947 6.35671280 -0.00002672 0.00763098 0.00438603 2.55370462 -0.04602534 4.01648223
C 0.33396636 2.81091356 5.55890005 -0.00495262 -0.00289311 0.00646273 -0.37589628 -5.56865060 3.71634930
C 6.06444499 5.74799299 9.75797369 -0.00794811 -0.00631541 -0.00449661 -1.65092170 1.17413425 -6.17524001
C 7.60185839 5.69332328 6.15150027 -0.00363996 0.00222033 0.00498174 -0.56852639 -0.23141110 -0.32001481
C 2.68660978 9.19999000 5.03362018 -0.00603493 -0.00831977 -0.00711364 -0.03664124 -2.04100621 1.65860474
C 2.82907851 4.95639952 3.27012845 -0.00021068 0.00476787 0.00324779 0.67424622 1.01667500 1.76605760
C 0.51177218 8.91128174 3.22737324 0.00247699 -0.00848846 -0.00259010 7.97156829 -5.25378472 -7.97537184
C 9.06028230 7.33279253 2.59306315 -0.00033409 0.00082966 0.00366650 -4.74634409 1.31240606 4.48981488
C 4.37376831 7.34917527 5.53763866 -0.00394515 -0.00457392 0.00430348 -3.96725130 -2.91093135 -4.17071128
C 8.12876242 4.29177251 5.81253792 -0.00129323 -0.00546343 0.00276759 -1.90624499 0.30886894 2.09054488
C 9.31506135 3.87633833 6.59855661 -0.00080100 0.00147204 0.00228520 -2.39595854 -0.53849459 1.04218149
C 9.98046953 3.38743518 0.12489949 -0.00265504 0.00715817 -0.00668785 2.55303490 4.86237109 -0.25977518
C 4.13770510 1.54150173 2.34998457 -0.00538642 0.00663919 -0.00676307 1.96306729 -0.13081670 -2.38423741
C 6.05957840 0.72157664 3.87173978 -0.00134905 -0.00265269 0.00470408 -2.93151122 4.99104238 -1.01006889
C 7.77633035 9.47784421 1.59400246 -0.00547474 -0.01142955 0.00954051 -6.26183534 -22.26733160 8.03689551
C 1.01209288 8.32101725 6.88929184 -0.00030079 0.00465033 0.00361782 6.28982466 -0.51516712 4.52125465
C 7.92505292 9.21273447 7.85393715 -0.00868254 -0.00183260 0.00494736 -1.80617404 5.88299203 0.59803557
C 5.60874441 9.39161010 7.88086996 -0.00006649 0.00365832 -0.00406151 -4.16005516 -3.81367749 -2.04521289
C 6.52631004 3.55736155 9.03080951 -0.00275012 -0.00423958 0.00181895 5.90020800 2.33752328 0.19776440
C 1.13202523 7.75679164 8.21197826 -0.00531919 0.00394933 0.00334360 3.72355640 3.45495117 -1.15687364
C 5.54505868 1.56261120 9.53173556 -0.00367599 -0.01517772 -0.01512939 -16.36900303 -24.96907234 -33.05072451
C 6.61607644 7.10631439 9.43149509 -0.00498846 -0.00258401 -0.00463461 -3.34840518 -3.05836266 -0.62167954
C 8.23031123 9.04819126 9.29249984 -0.00052386 0.00142413 -0.00508483 4.89203274 2.92012072 0.71037149
C 9.12538861 9.93792010 5.43466516 -0.00549994 -0.00671599 0.00093973 -15.68156052 3.44553435 6.26054549
C 1.18353375 5.24354608 1.09916012 -0.00256649 -0.00387234 0.00524670 -2.88867134 -1.36540216 5.46883512
C 2.94323763 6.33379430 0.30633740 -0.00277995 0.00650025 0.00024918 1.22597444 10.52137542 -0.14495730
C 2.56575295 8.08824968 3.96934663 0.00700314 0.00132645 0.00458429 0.22456050 -3.69280875 0.31783897
C 4.31147215 6.37348182 0.61098302 0.00272616 -0.00388421 0.00214713 -2.62910336 -1.68312335 0.32891345
C 5.04807052 5.57086989 8.67134983 -0.01042861 0.00065272 0.00275888 -4.65358186 0.97804388 -6.37601066
C 4.93520087 0.48474383 2.82700869 0.00235856 0.00395942 0.00151514 0.41749095 4.56510842 3.89998412
C 2.03337956 1.30847365 4.76207946 -0.00351933 -0.00294165 0.00239449 -4.75259304 -1.20826122 -1.03313532
C 7.90750311 0.36546078 1.26576652 0.00805537 0.01181359 -0.00730423 6.65314090 22.63843346 -4.30906892
159
Time=2.00000000 pbc="T T T" Lattice="10.00000000 0.00000000 0.00000000 0.00000000 10.00000000 0.00000000 0.00000000 0.00000000 10.00000000" energy=51.97111511 virial="-639.65638473 50.13949089 -51.35173804 50.13949089 -673.20122201 -42.81672735 -51.35173804 -42.81672735 -772.15463446" stress="-0.60581250 0.05013949 -0.05135174 0.05013949 -0.65483300 -0.04281673 -0.05135174 -0.04281673 -0.73792215" Properties=species:S:1:pos:R:3:vel:R:3:forces:R:3
C 0.18442117 9.88834304 4.16305190 0.03116452 0.00514798 0.01697988 17.44416571 4.10553741 9.02420163
C 9.51339807 2.58173946 3.83327425 0.00040717 0.01092701 -0.00643948 -3.96461344 3.67395258 -1.61213106
C 3.33916213 1.99091785 0.05704114 -0.04277766 0.01221751 0.02418974 -22.23089802 4.80980098 16.24601439
C 4.15607590 2.93418205 2.99950996 -0.00088051 -0.00105123 0.00041660 -1.76054963 -0.32955098 -1.13559079
C 0.14857464 8.85179323 0.80654392 -0.00461165 0.00266615 0.00633913 -2.63273609 2.08431435 0.06354362
C 4.50795810 9.14132623 3.31066984 0.00688811 0.00408354 -0.00264752 0.11985040 1.74895406 -4.77383441
C 7.31731783 7.35298027 1.01874309 -0.00469813 -0.00085400 -0.00187406 0.37910914 -2.09083611 4.87084711
C 9.67990496 2.35043531 6.59041598 -0.00515759 -0.00556697 -0.00090447 -0.56634808 0.40177140 -5.07843828
C 3.91119198 9.92250373 9.71484655 -0.00657009 -0.01130751 -0.01402615 -0.17013288 -7.66767550 -6.37878567
C 9.42724769 4.46753023 0.96918686 -0.00363713 0.00372532 -0.00240132 1.57127070 -3.53229484 1.53890234
C 3.00951342 0.24368381 4.67234157 -0.00132183 0.00347566 0.00429423 -1.32308769 -1.89981949 2.60946882
C 0.72881388 6.40338668 1.63782491 0.00409255 -0.00579559 0.00284928 5.65432096 -6.11388993 2.54106304
C 0.91104621 5.50045157 7.41581414 0.00316591 0.00556688 -0.00032120 3.03376400 -1.57867932 3.26663963
C 0.12603388 9.83374837 5.46625810 0.02307657 -0.00201352 0.00430430 12.56329846 -1.29376355 0.42594458
C 9.23940959 7.04497308 9.41307546 -0.00438975 0.00340525 -0.00512444 -1.56511402 -2.18641973 -1.57557333
C 1.60471553 5.49431762 3.70700705 0.00177181 0.00728152 0.00638649 3.30485678 2.14593247 0.21947145
C 5.48410725 7.93634646 9.74025655 -0.00820845 0.01093577 0.00054769 -0.27794397 3.18451291 0.52030516
C 9.73840930 2.65686074 8.20750442 -0.00989986 -0.00130161 0.00268427 -2.19890851 2.98679781 -0.00693107
C 6.44044452 8.75854472 5.73587805 0.00434990 -0.00152070 -0.00543803 -1.60830906 0.95104066 1.41981375
C 7.75507609 8.06594900 2.22444376 -0.00785073 -0.00115552 -0.00765659 -0.19749010 -0.07267618 -0.58669892
C 2.00513380 3.12497280 1.71220434 -0.00499722 0.00768928 0.00962076 -1.00473212 0.26697072 3.09691298
C 2.96586034 9.38905927 8.73584574 0.00416936 -0.00883766 -0.00341814 -0.75999801 -4.15829062 -3.04690254
C 9.23431509 9.41180172 6.93475529 -0.00425034 0.00371623 0.00153235 -1.61199832 -0.22227985 0.66504908
C 6.16300892 5.38937921 3.06848125 -0.00058691 0.00120784 -0.00089613 -2.94850926 0.67077959 5.37319875
C 2.22065780 3.41680165 9.31779233 -0.00187434 0.03377679 -0.03001139 0.02595598 14.60087740 -19.34252238
C 9.54408447 1.60487991 9.36424757 0.00996772 -0.00957434 0.00615806 1.47148171 -2.40354967 -0.58909130
C 1.11815156 1.62193478 5.75603741 0.00370281 -0.00512238 0.00344428 1.38182008 -2.21656752 1.09557307
C 1.23452119 1.38163312 3.50984871 0.00082865 0.00068762 0.00628733 4.98788786 1.47072244 1.08173132
C 0.93116348 6.32820641 8.65635492 0.01110537 0.00038569 -0.01030146 5.27575898 2.78458709 -4.04960346
C 4.69467459 7.72186567 0.77384452 0.00449661 -0.00991082 0.00313218 -1.88398218 -5.93431568 0.22208500
C 9.27880899 7.00169727 4.94567934 0.00664681 -0.00074687 -0.00247075 -0.53731930 -1.82480454 -4.38973361
C 7.57799715 3.73348863 0.14672459 0.00044980 0.00053405 0.00638411 -4.97398099 1.23776722 -0.22949986
C 8.78808551 1.60275383 1.18943456 -0.00915800 0.00239649 0.00824730 -7.23145413 -2.24700594 4.58588898
C 7.40836248 1.31654076 6.25675247 0.00580047 0.00139460 -0.00332481 -0.55432719 1.62320763 1.00665975
C 7.50660663 1.58541258 2.03762567 0.00767585 0.00845086 -0.00610719 -0.04869556 1.21680731 -0.34911507
C 8.49435436 4.74715218 9.09618156 0.00561466 0.00556816 -0.00529732 -0.00408220 3.07818079 -3.55944511
C 5.89530665 1.28167025 8.18073418 -0.00360019 -0.00213305 0.00261630 -4.00716400 1.48773479 -1.25484896
C 7.17735467 2.85335002 4.21652870 -0.00213126 -0.00536599 0.00084905 0.78183126 -3.64323950 4.41140634
C 1.41298913 5.49182444 5.14891111 -0.01069294 0.00051912 0.00086190 -4.65165806 3.70507216 0.45344132
C 5.80311955 8.91938687 2.89635088 0.00474508 -0.01122278 0.00659183 4.66955972 -4.72908968 0.25859420
C 6.64313898 2.44445617 5.48539110 -0.00307150 -0.00599711 -0.00417226 2.96202791 0.15702230 -3.41412163
C 4.40335710 3.84259800 5.38625606 0.00203565 0.00486449 0.01129972 -1.89614797 -2.30484653 4.04404521
C 6.30450024 5.04301128 1.62517728 0.00714359 -0.00378889 0.00886844 3.18603358 -1.25916162 4.15231514
C 4.80789926 1.56537587 7.21689701 -0.00101965 -0.00235474 -0.00509781 1.16594970 0.91084528 -0.62545137
C 2.23847988 2.82454696 0.06855039 0.00664494 -0.03341172 0.03377706 4.10375357 -16.09852338 22.70596671
C 7.96834697 4.08699094 4.24574732 0.00590152 -0.00917416 0.00227023 1.59753519 -2.38792759 -2.22717226
C 7.37025991 1.55799198 3.52252589 -0.00431609 0.00730448 -0.00746615 0.98132205 3.01465857 -0.27790290
C 7.58977201 5.51936342 3.71070297 0.00709122 -0.00699216 -0.00304194 -0.23835301 0.55851464 -2.90332824
C 3.24521202 9.26970000 7.37037835 -0.00163982 -0.00800299 0.00549037 3.23232067 -2.75717652 0.91648433
C 7.96142717 6.37486204 7.43065467 -0.00262378 0.00292407 0.00806812 -5.07434571 0.49281418 0.22698414
C 6.25268865 9.45505898 1.56780182 -0.00027674 -0.00322268 -0.00382190 -2.08527327 -5.99408746 2.29876298
C 7.53641201 5.91600256 1.28588210 -0.00565721 0.00227633 -0.00529836 -0.31308429 1.66034776 1.11365032
C 5.36590118 1.67292264 4.87720041 -0.00570164 -0.00534144 -0.00050078 1.10249847 -0.21132548 0.35023153
C 4.14065771 1.88624245 9.54964137 0.04335707 -0.00177723 -0.02303464 20.16564512 -0.54503512 -14.38026643
C 8.42360763 0.42749112 9.53922962 -0.01228683 -0.00933376 0.00286716 -2.99761605 -2.63801169 -4.37165058
C 8.78565995 1.27306241 4.16764322 -0.00862341 0.01767366 -0.00621899 -3.16068181 9.44078302 -0.20679736
C 9.52332853 0.11598503 3.36059461 -0.00466599 0.00219946 -0.00674564 -9.34188682 6.95838648 -9.03703332
C 4.91072661 2.65549275 1.86624513 -0.01020025 -0.01338321 0.01044234 -3.41751516 -4.24630421 3.31317639
C 6.73644734 8.57312512 7.32844545 0.00105030 -0.00274635 -0.00391829 -0.06633259 2.28732610 1.23940307
C 4.54340535 6.14129587 6.33026510 -0.00091117 0.00723673 0.00249784 0.76227045 0.79939580 -2.14825982
C 0.74926755 7.42984553 0.57131844 0.05529154 -0.01657424 0.02308362 31.36523819 -9.72838247 14.13486338
C 9.56846722 4.76244537 2.43411817 -0.00674226 -0.00084125 -0.00663260 -5.27903724 -2.95385823 -0.50191033
C 0.90001499 3.98550469 1.54786895 0.00724012 0.00979022 -0.00702127 5.40620947 4.79554081 -2.43018788
C 8.46715009 5.88235453 2.56841662 0.00512817 0.00121134 0.00806535 -2.59708875 0.00772832 1.54607600
C 3.11050484 1.11560637 1.35313147 0.00463948 0.00557961 -0.00251306 0.31507558 3.15064049 4.53485608
C 0.78868270 1.01158937 6.97742559 0.00583953 0.00951188 -0.00409673 1.70310271 3.59695208 -8.31832361
C 4.56150188 9.10508468 7.07273826 0.00097018 0.00828837 0.00836937 -3.80914068 2.42226672 0.55174935
C 5.09608153 0.78402196 6.02568656 0.00601841 0.01523246 0.01038242 1.66848218 7.37702812 2.47895403
C 7.03582722 4.77823960 9.31781533 0.00122338 -0.00483170 -0.00377131 -0.72748840 -3.68179242 1.37942290
C 4.96229312 5.17691391 0.76570016 0.00726673 0.01491824 -0.00867224 1.03853703 7.30864598 -1.36472791
C 2.06746269 5.47123614 6.44143943 -0.00027275 -0.00561418 0.00194885 -1.89769465 -1.02738877 0.60737944
C 3.41007953 5.22132386 7.00471957 -0.00600797 0.00077080 -0.00246762 -1.21238497 -1.71787721 0.62135084
C 6.75009638 7.05152572 7.80474412 -0.00035854 -0.01002245 -0.00876615 2.33674729 -4.59770572 -1.39835435
C 2.98177958 3.69693318 2.65065034 0.00311554 -0.00210253 0.00377138 0.46499382 2.12290657 1.53677064
C 5.18892892 5.56911392 3.94805003 0.00128975 0.00426870 -0.00837794 0.80270040 -2.71795923 -3.75586143
C 9.35720265 9.21964588 4.10094633 -0.01535707 -0.01573200 -0.00612486 -10.82449198 -13.23291814 -0.48234379
C 3.76081479 5.24222782 8.47645594 0.00624075 0.00199858 0.00737079 5.86829519 0.64548135 0.94293284
C 2.23675227 7.67440890 0.30638497 -0.00116126 -0.00608567 0.00513763 -1.08378959 -2.99734974 0.03166568
C 0.24990066 0.88735090 0.11541550 -0.07652343 -0.03867729 0.07876624 -32.46489978 -14.80171080 43.84390926
C 4.09371495 9.63294842 4.69201261 -0.00097962 0.00497283 -0.00409050 -2.20266056 -0.11543083 0.48619431
C 0.72295301 3.44769252 9.11008104 -0.00310384 0.00400751 0.00020606 -4.25177733 3.59406364 1.16927922
C 7.75790679 6.57151308 4.91414607 -0.00289981 0.00467631 -0.00479389 0.20529056 1.21096147 0.19911174
C 6.82254227 8.17587032 3.38872845 -0.00042585 -0.00361151 -0.00036264 -2.35703796 3.49291015 0.96220052
C 9.59605747 9.24379549 9.66633697 0.00070952 0.00310484 0.00584589 -1.62723899 0.23767728 2.75139976
C 8.24266918 5.07293257 0.19087340 -0.00251682 -0.00695821 0.00473631 -0.45918632 -1.38292766 2.22973129
C 9.05617980 6.03545124 8.41072645 -0.00267515 0.00817359 0.00074278 -3.63991618 4.12732440 2.84658009
C 0.99686153 6.51934289 2.96171140 0.00759438 -0.00294224 0.00579113 2.84865749 1.61659241 -0.00405589
C 1.84977527 8.64722194 9.08662250 0.00753243 -0.00112467 -0.00867827 4.20158446 -2.92764938 -3.53459513
C 6.39606293 2.39846636 1.49282992 0.00285670 -0.00145606 -0.00563443 1.54752651 4.30395973 -1.69566190
C 9.89044715 7.67994479 0.29406086 -0.04485245 0.01413235 -0.02707029 -26.48009324 4.40361071 -12.79033279
C 3.36933699 8.65658730 2.65582585 -0.00056874 -0.00473576 -0.00219189 4.54103988 -1.98294866 -2.79057711
C 8.83850346 1.18435427 5.76734684 -0.00592552 0.00396108 -0.00732315 -6.11769521 1.19403720 -3.35214472
C 3.76756114 3.75361307 6.56541766 0.01064642 -0.00656533 -0.00772428 5.39308667 -2.28304246 -3.91594756
C 0.48735500 4.12871330 7.81355972 -0.00311293 0.01087470 -0.00805705 1.86663818 2.92212960 0.48633766
C 6.90927091 3.75664244 1.39695513 0.00137583 -0.00298264 -0.00763589 -3.56049222 0.13411957 -2.09229994
C 6.87351708 3.66219805 6.48147710 0.00219021 0.00879117 0.00571009 2.97368318 1.40171903 -0.88684797
C 2.20582982 5.18865389 0.22081459 -0.00494933 -0.00380977 0.02195632 -7.10513300 -3.95076466 19.59826744
C 5.92951134 2.19395232 0.09017729 0.02100474 0.02412400 0.03514242 8.71305990 12.04788518 16.68349648
C 7.33730984 3.15439326 7.86029096 0.00742889 0.00375237 0.00404259 0.46719281 -2.18656677 -1.53765589
C 1.88367489 6.03202036 9.66803667 -0.01013876 0.02484173 -0.01337412 -2.61110926 14.29980361 -9.46805897
C 0.06346368 5.83452030 5.38240655 0.00102133 0.00915515 0.00224792 3.63615561 2.40046763 -2.96456051
C 3.77941203 5.80737096 3.77046786 0.00567933 0.00005488 0.00283532 -0.54925881 0.39791203 1.66440547
C 4.52339506 2.79984241 4.39943920 -0.00299783 -0.00156707 0.00793715 2.10767496 1.76746672 1.89185297
C 6.08223967 8.19364505 0.73753547 -0.00018017 -0.00108019 0.01296747 -0.71696925 -0.37907386 5.83631063
C 9.31741288 7.87493204 3.86810675 -0.00381784 -0.01050839 -0.00412517 -3.18260872 -5.58116293 0.59402909
C 7.03036288 7.83001123 4.73463485 0.00304510 0.00406494 -0.01180601 0.04240757 0.34784231 -5.00627637
C 4.87582392 8.73452403 5.71673259 -0.00067883 -0.00516528 0.01040949 -1.83262491 -3.91824695 4.19319332
C 0.82118706 1.14330472 9.54133731 0.07393919 0.03145048 -0.08572236 33.28355008 18.92852736 -41.33415043
C 3.51066081 7.03946023 4.44798216 0.00294361 -0.00698274 -0.00525207 2.45582163 -0.52816677 0.93014973
C 3.45022830 8.22834449 1.34207380 0.00277270 -0.00077032 0.01191310 3.68857020 1.97784823 4.81251478
C 5.63220601 6.07058564 7.45316892 0.00506583 0.00027039 0.00830603 -0.96585685 -1.09738025 2.38402557
C 4.54512264 2.79880158 0.44609456 0.00651966 0.00102694 -0.00153575 0.51117694 1.01321316 1.21755219
C 1.19364221 7.77044852 3.55620822 0.00197014 0.00101436 -0.00176128 2.72819519 -0.94640398 -2.43075317
C 3.30540989 2.55264301 8.66583450 -0.00091570 -0.00597508 -0.01282282 3.53022683 0.09174782 -5.00045186
C 6.24907209 5.06111520 6.35105596 -0.00407504 0.00270482 -0.00386524 2.23189574 0.49281541 -1.23150805
C 9.05117036 3.72857684 3.39305543 -0.00335018 -0.00794222 -0.00037494 0.02776480 -4.25535655 5.11511397
C 2.76934099 4.83331297 9.45521408 0.01474958 -0.00777617 -0.02450346 11.71063256 -10.70138276 -18.22668648
C 5.27935587 9.28472698 9.39773248 -0.00799055 0.00325868 -0.00171253 -3.01305410 0.70185757 -4.73249841
C 0.48689730 0.93743386 1.48105592 0.00229646 -0.00979502 0.00506036 0.68228626 -3.89203751 0.64012021
C 1.77995594 1.66873726 2.09600209 0.00125795 0.00182221 -0.00644792 -0.89912939 1.49674308 -0.82724708